16
Atoms. Timestep: 5673356
O -0.551636 0.356463 -0.694393
C -0.0479234 1.31828 0.169442
O -0.690089 1.51705 1.18947
C 1.26187 2.23524 -0.25537
C 3.31676 2.82182 -1.77011
C 3.78923 3.88956 -0.934246
C 2.97258 4.12489 0.220277
C 1.78718 3.33811 0.559787
C 2.08661 2.02895 -1.40313
H 1.79928 1.17849 -2.00901
H 1.25774 3.60186 1.45239
H 3.28362 4.89718 0.953323
C 5.15636 4.69506 -1.35054
H 3.83934 2.60783 -2.70829
O 5.66006 5.56805 -0.612998
O 5.89044 4.46331 -2.52129
